# vtk DataFile Version 3.0
Mesh
ASCII
DATASET POLYDATA
POINTS 513 double
0 0 0
0 1 0
1 1 0
1 0 0
0.05 1 0
0.1 1 0
0.15 1 0
0.2 1 0
0.25 1 0
0.3 1 0
0.35 1 0
0.4 1 0
0.45 1 0
0.5 1 0
0.55 1 0
0.6 1 0
0.65 1 0
0.7 1 0
0.75 1 0
0.8 1 0
0.85 1 0
0.9 1 0
0.95 1 0
1 0.95 0
1 0.9 0
1 0.85 0
1 0.8 0
1 0.75 0
1 0.7 0
1 0.65 0
1 0.6 0
1 0.55 0
1 0.5 0
1 0.45 0
1 0.4 0
1 0.35 0
1 0.3 0
1 0.25 0
1 0.2 0
1 0.15 0
1 0.1 0
1 0.05 0
0.95 0 0
0.9 0 0
0.85 0 0
0.8 0 0
0.75 0 0
0.7 0 0
0.65 0 0
0.6 0 0
0.55 0 0
0.5 0 0
0.45 0 0
0.4 0 0
0.35 0 0
0.3 0 0
0.25 0 0
0.2 0 0
0.15 0 0
0.1 0 0
0.05 0 0
0 0.05 0
0 0.1 0
0 0.15 0
0 0.2 0
0 0.25 0
0 0.3 0
0 0.35 0
0 0.4 0
0 0.45 0
0 0.5 0
0 0.55 0
0 0.6 0
0 0.65 0
0 0.7 0
0 0.75 0
0 0.8 0
0 0.85 0
0 0.9 0
0 0.95 0
0.956699 0.475 0
0.477188 0.0504666 0
0.0433013 0.525 0
0.52345 0.966008 0
0.675 0.0433013 0
0.956699 0.675 0
0.0433013 0.325 0
0.325515 0.956129 0
0.956699 0.325 0
0.325 0.0422554 0
0.674273 0.962822 0
0.0433013 0.675 0
0.956699 0.825 0
0.82546 0.0444272 0
0.178035 0.0418822 0
0.0419101 0.827002 0
0.956699 0.175 0
0.82976 0.951658 0
0.17454 0.955573 0
0.0433013 0.175 0
0.044645 0.4272 0
0.422543 0.955132 0
0.576095 0.0395714 0
0.956699 0.575 0
0.957815 0.923066 0
0.920409 0.0452849 0
0.0749186 0.0424082 0
0.0421848 0.923066 0
0.956699 0.425 0
0.913397 0.45 0
0.913397 0.4 0
0.870096 0.425 0
0.870096 0.475 0
0.826795 0.45 0
0.826795 0.5 0
0.783494 0.475 0
0.783494 0.525 0
0.740192 0.5 0
0.740192 0.45 0
0.696891 0.475 0
0.696891 0.525 0
0.65359 0.5 0
0.65359 0.55 0
0.610289 0.525 0
0.610289 0.475 0
0.566987 0.5 0
0.566987 0.55 0
0.523686 0.525 0
0.523686 0.475 0
0.480385 0.5 0
0.480385 0.45 0
0.480385 0.55 0
0.437083 0.475 0
0.437083 0.425 0
0.480385 0.4 0
0.437083 0.375 0
0.393782 0.45 0
0.480385 0.35 0
0.437083 0.325 0
0.480385 0.3 0
0.437083 0.275 0
0.393782 0.3 0
0.523686 0.325 0
0.523686 0.275 0
0.566987 0.3 0
0.566987 0.25 0
0.610289 0.275 0
0.393782 0.25 0
0.350481 0.275 0
0.696891 0.575 0
0.65359 0.6 0
0.696891 0.625 0
0.65359 0.65 0
0.696891 0.675 0
0.65359 0.7 0
0.696891 0.725 0
0.65359 0.75 0
0.610289 0.725 0
0.393782 0.5 0
0.350481 0.475 0
0.350481 0.525 0
0.30718 0.5 0
0.30718 0.55 0
0.263878 0.525 0
0.263878 0.475 0
0.263878 0.575 0
0.30718 0.6 0
0.263878 0.625 0
0.30718 0.65 0
0.263878 0.675 0
0.30718 0.7 0
0.263878 0.725 0
0.30718 0.75 0
0.350481 0.725 0
0.826795 0.4 0
0.740192 0.65 0
0.696891 0.775 0
0.740192 0.75 0
0.263878 0.775 0
0.220577 0.75 0
0.220812 0.6 0
0.610289 0.775 0
0.566987 0.75 0
0.350481 0.775 0
0.610289 0.225 0
0.65359 0.25 0
0.523686 0.225 0
0.350481 0.225 0
0.30718 0.25 0
0.30718 0.3 0
0.263878 0.275 0
0.263878 0.225 0
0.220577 0.25 0
0.220577 0.3 0
0.220577 0.5 0
0.740192 0.8 0
0.783494 0.775 0
0.393782 0.2 0
0.696891 0.425 0
0.393782 0.75 0
0.393782 0.7 0
0.220577 0.2 0
0.221679 0.798092 0
0.566987 0.8 0
0.65359 0.2 0
0.696891 0.225 0
0.393782 0.8 0
0.696891 0.275 0
0.740192 0.25 0
0.740192 0.2 0
0.783494 0.225 0
0.566987 0.7 0
0.220577 0.45 0
0.826795 0.55 0
0.177276 0.225 0
0.177459 0.774682 0
0.177306 0.724947 0
0.178411 0.473033 0
0.177465 0.424672 0
0.610289 0.825 0
0.264294 0.17572 0
0.264491 0.823938 0
0.177276 0.175 0
0.174923 0.818392 0
0.783308 0.174678 0
0.783124 0.824359 0
0.610289 0.175 0
0.826764 0.199946 0
0.82679 0.249991 0
0.566987 0.35 0
0.740192 0.3 0
0.350481 0.425 0
0.523686 0.725 0
0.523686 0.675 0
0.826733 0.799893 0
0.826785 0.749982 0
0.13401 0.749938 0
0.740192 0.15 0
0.740192 0.85 0
0.566987 0.85 0
0.523686 0.825 0
0.826573 0.149616 0
0.828258 0.849234 0
0.87009 0.22499 0
0.696891 0.325 0
0.350481 0.625 0
0.263878 0.425 0
0.740192 0.4 0
0.350481 0.825 0
0.393782 0.85 0
0.610289 0.625 0
0.393782 0.55 0
0.653616 0.149955 0
0.177276 0.525 0
0.350481 0.175 0
0.393782 0.15 0
0.437083 0.175 0
0.437083 0.775 0
0.870094 0.274997 0
0.826794 0.299998 0
0.870084 0.774979 0
0.870092 0.724994 0
0.826793 0.699996 0
0.870095 0.674998 0
0.826794 0.649999 0
0.870096 0.625 0
0.134221 0.699981 0
0.610289 0.875 0
0.135553 0.441517 0
0.133975 0.4 0
0.13421 0.2 0
0.134249 0.15 0
0.134014 0.25 0
0.437816 0.126268 0
0.480507 0.150211 0
0.396222 0.0929721 0
0.609611 0.126174 0
0.566874 0.150196 0
0.783494 0.575 0
0.65359 0.85 0
0.177322 0.674988 0
0.13061 0.654359 0
0.177307 0.374945 0
0.134215 0.349991 0
0.480385 0.7 0
0.480385 0.65 0
0.523686 0.625 0
0.913396 0.249998 0
0.870096 0.324999 0
0.913395 0.749995 0
0.350618 0.873737 0
0.179959 0.121917 0
0.522815 0.873491 0
0.48024 0.849748 0
0.131676 0.10029 0
0.479178 0.898046 0
0.0906733 0.225 0
0.0906733 0.725 0
0.0905439 0.367642 0
0.0866651 0.1257 0
0.0926302 0.774049 0
0.0906733 0.275 0
0.395786 0.906805 0
0.652147 0.0928824 0
0.652783 0.896668 0
0.612416 0.921613 0
0.562533 0.106042 0
0.479855 0.103102 0
0.913396 0.199998 0
0.956699 0.375 0
0.423314 0.0448912 0
0.375 0.0433013 0
0.783493 0.674999 0
0.956699 0.525 0
0.913397 0.55 0
0.528686 0.0404718 0
0.480405 0.200035 0
0.0433013 0.575 0
0.0863674 0.55 0
0.0866025 0.6 0
0.130019 0.567617 0
0.0879071 0.5022 0
0.826795 0.6 0
0.696891 0.375 0
0.65359 0.4 0
0.65359 0.35 0
0.0421657 0.623033 0
0.476444 0.95036 0
0.0435075 0.475733 0
0.740192 0.35 0
0.275 0.043127 0
0.303433 0.0938046 0
0.249653 0.0847219 0
0.783494 0.625 0
0.127829 0.0494432 0
0.956885 0.874678 0
0.913615 0.899624 0
0.91856 0.953942 0
0.87421 0.924455 0
0.913465 0.849884 0
0.724879 0.958756 0
0.775773 0.956201 0
0.795007 0.918482 0
0.746328 0.908849 0
0.956935 0.125409 0
0.913437 0.150068 0
0.914848 0.0997022 0
0.870307 0.124898 0
0.871554 0.0747387 0
0.826482 0.098295 0
0.77892 0.07326 0
0.782379 0.12307 0
0.737639 0.0987857 0
0.696507 0.124541 0
0.0433013 0.875 0
0.0864165 0.899678 0
0.0814439 0.95395 0
0.129904 0.925 0
0.129904 0.875 0
0.172644 0.903517 0
0.220995 0.926977 0
0.219719 0.882852 0
0.259889 0.903936 0
0.225457 0.0428741 0
0.913397 0.5 0
0.177282 0.275 0
0.610289 0.375 0
0.350481 0.675 0
0.393782 0.65 0
0.393782 0.6 0
0.0859323 0.851115 0
0.523686 0.375 0
0.523686 0.425 0
0.437087 0.225006 0
0.566987 0.65 0
0.480389 0.250007 0
0.350481 0.325 0
0.30718 0.35 0
0.263878 0.325 0
0.740192 0.7 0
0.610289 0.325 0
0.783494 0.375 0
0.350481 0.125 0
0.566968 0.200033 0
0.375 0.956699 0
0.269983 0.950309 0
0.783493 0.325 0
0.730731 0.0469426 0
0.307282 0.799823 0
0.626573 0.042974 0
0.56746 0.898907 0
0.783491 0.724996 0
0.566987 0.45 0
0.30718 0.45 0
0.740192 0.6 0
0.956699 0.625 0
0.523686 0.775 0
0.393782 0.35 0
0.610289 0.575 0
0.65359 0.45 0
0.220614 0.399936 0
0.783494 0.425 0
0.740192 0.55 0
0.65359 0.3 0
0.521985 0.128101 0
0.308608 0.847355 0
0.220852 0.55 0
0.437083 0.525 0
0.307249 0.20012 0
0.696831 0.174916 0
0.610289 0.675 0
0.783493 0.274998 0
0.523404 0.175596 0
0.350481 0.575 0
0.22059 0.699989 0
0.65359 0.8 0
0.610289 0.425 0
0.393782 0.4 0
0.130276 0.794348 0
0.437083 0.575 0
0.222318 0.152614 0
0.826795 0.349999 0
0.566987 0.4 0
0.350481 0.375 0
0.220626 0.649996 0
0.870096 0.525 0
0.870095 0.174919 0
0.566987 0.6 0
0.30718 0.4 0
0.437083 0.725 0
0.175171 0.627888 0
0.696891 0.825 0
0.30718 0.15 0
0.523686 0.575 0
0.870096 0.375 0
0.263885 0.374989 0
0.134257 0.299998 0
0.698297 0.875022 0
0.220582 0.349992 0
0.1773 0.324997 0
0.480385 0.6 0
0.913397 0.6 0
0.870096 0.575 0
0.437083 0.625 0
0.480385 0.75 0
0.913397 0.65 0
0.437083 0.675 0
0.913396 0.699998 0
0.480361 0.799958 0
0.437055 0.824951 0
0.437083 0.875 0
0.956698 0.724999 0
0.913397 0.35 0
0.956698 0.774999 0
0.913397 0.299999 0
0.913406 0.799976 0
0.956698 0.274999 0
0.956699 0.225 0
0.87034 0.824828 0
0.873019 0.874671 0
0.572764 0.955621 0
0.0438812 0.774556 0
0.0402453 0.724977 0
0.0898033 0.45572 0
0.128493 0.525 0
0.0930305 0.675913 0
0.175708 0.578987 0
0.0448231 0.378933 0
0.0985982 0.323526 0
0.0418902 0.275 0
0.0401417 0.225 0
0.0935773 0.175036 0
0.0343677 0.125627 0
0.306698 0.899992 0
0.958936 0.0765337 0
0.0453515 0.0794937 0
0.204009 0.0807928 0
0.784972 0.873195 0
0.263286 0.128685 0
0.690367 0.922918 0
0.350019 0.0797125 0
0.350723 0.918672 0
0.698518 0.080797 0
0.093288 0.0794671 0
0.596222 0.0793968 0
0.625 0.965224 0
0.442879 0.0835399 0
0.442207 0.917068 0
0.873484 0.0328902 0
0.874748 0.966254 0
0.125567 0.96661 0
0.518458 0.084056 0
0.518458 0.915944 0
0.777022 0.032926 0
0.225 0.967372 0
0.836311 0.89964 0
0.268768 0.864464 0
0.225137 0.839351 0
0.963397 0.963397 0
0.0366025 0.0366025 0
0.963397 0.0366025 0
0.0366025 0.963397 0
0.0797889 0.638198 0
0.140788 0.488198 0
0.0920609 0.412225 0
0.125403 0.612327 0
0.171945 0.860114 0
0.125931 0.836069 0
0.0796668 0.812013 0
0.165525 0.0796372 0
0.223845 0.113746 0
0.648359 0.934606 0
0.553448 0.0693341 0
LINES 80 240
2 1 4
2 4 5
2 5 6
2 6 7
2 7 8
2 8 9
2 9 10
2 10 11
2 11 12
2 12 13
2 13 14
2 14 15
2 15 16
2 16 17
2 17 18
2 18 19
2 19 20
2 20 21
2 21 22
2 22 2
2 2 23
2 23 24
2 24 25
2 25 26
2 26 27
2 27 28
2 28 29
2 29 30
2 30 31
2 31 32
2 32 33
2 33 34
2 34 35
2 35 36
2 36 37
2 37 38
2 38 39
2 39 40
2 40 41
2 41 3
2 3 42
2 42 43
2 43 44
2 44 45
2 45 46
2 46 47
2 47 48
2 48 49
2 49 50
2 50 51
2 51 52
2 52 53
2 53 54
2 54 55
2 55 56
2 56 57
2 57 58
2 58 59
2 59 60
2 60 0
2 0 61
2 61 62
2 62 63
2 63 64
2 64 65
2 65 66
2 66 67
2 67 68
2 68 69
2 69 70
2 70 71
2 71 72
2 72 73
2 73 74
2 74 75
2 75 76
2 76 77
2 77 78
2 78 79
2 79 1
TRIANGLE_STRIPS 944 3776
3 460 390 492
3 385 87 473
3 343 238 437
3 83 460 492
3 300 297 461
3 461 297 462
3 301 296 469
3 469 296 470
3 382 331 432
3 298 86 467
3 86 298 468
3 91 297 465
3 296 99 470
3 297 91 462
3 99 296 471
3 320 253 464
3 253 320 466
3 301 86 468
3 86 301 469
3 299 99 471
3 99 299 472
3 362 385 473
3 430 466 505
3 463 321 503
3 467 100 504
3 466 320 505
3 298 467 504
3 268 463 503
3 275 310 311
3 101 302 384
3 475 299 483
3 472 299 475
3 303 84 389
3 362 360 385
3 352 350 387
3 346 105 348
3 343 437 479
3 361 497 506
3 497 223 506
3 242 477 495
3 432 331 478
3 238 343 477
3 387 350 493
3 385 360 494
3 310 275 486
3 302 101 487
3 4 5 356
3 21 22 337
3 477 342 495
3 331 382 480
3 303 389 484
3 348 105 488
3 348 93 349
3 357 98 359
3 81 307 491
3 295 327 492
3 4 356 501
3 337 22 498
3 349 93 350
3 359 98 360
3 473 87 481
3 84 303 482
3 305 390 460
3 97 338 495
3 105 346 474
3 275 311 480
3 384 302 481
3 315 81 491
3 327 83 492
3 334 294 509
3 307 81 486
3 327 295 487
3 224 241 351
3 342 97 495
3 294 334 483
3 359 360 361
3 237 351 352
3 237 352 353
3 241 349 351
3 237 224 351
3 349 350 351
3 331 332 478
3 361 360 362
3 353 252 409
3 93 348 488
3 338 97 489
3 98 357 490
3 484 102 512
3 237 353 409
3 303 252 353
3 351 350 352
3 241 347 349
3 347 241 426
3 345 347 426
3 308 345 426
3 308 96 345
3 38 96 457
3 96 308 457
3 54 89 311
3 110 108 309
3 108 34 309
3 277 404 412
3 200 429 446
3 32 33 80
3 51 52 81
3 309 88 452
3 335 92 339
3 404 274 412
3 213 278 322
3 452 88 454
3 24 25 335
3 322 278 333
3 32 80 313
3 51 81 315
3 175 312 333
3 103 31 313
3 102 50 315
3 186 316 375
3 317 72 326
3 25 92 335
3 319 317 326
3 112 114 425
3 80 108 109
3 53 54 311
3 50 51 315
3 31 32 313
3 277 306 404
3 175 333 394
3 13 14 83
3 70 71 82
3 341 342 343
3 314 313 364
3 341 97 342
3 19 97 341
3 153 155 379
3 325 244 403
3 330 56 363
3 23 24 104
3 310 53 311
3 312 175 379
3 316 373 375
3 332 330 363
3 35 88 309
3 42 43 105
3 244 323 329
3 13 83 327
3 229 366 380
3 70 82 328
3 229 371 422
3 366 325 380
3 274 316 412
3 80 109 364
3 101 12 327
3 445 263 447
3 80 33 108
3 333 278 394
3 100 69 328
3 323 244 325
3 287 454 456
3 103 313 314
3 265 441 442
3 365 436 439
3 364 112 425
3 323 247 329
3 380 325 403
3 369 251 413
3 35 36 88
3 347 348 349
3 104 24 335
3 373 140 375
3 59 106 334
3 147 140 373
3 175 153 379
3 12 13 327
3 69 70 328
3 54 55 89
3 96 344 345
3 264 322 333
3 366 229 422
3 33 34 108
3 89 330 331
3 312 264 333
3 354 107 355
3 347 346 348
3 345 346 347
3 89 55 330
3 314 364 425
3 109 112 364
3 78 107 354
3 82 321 328
3 34 35 309
3 96 39 344
3 429 284 446
3 355 107 356
3 374 211 410
3 354 355 370
3 316 186 412
3 355 358 370
3 155 177 379
3 245 368 369
3 340 341 343
3 345 344 346
3 329 247 381
3 16 17 90
3 38 39 96
3 288 259 421
3 355 356 357
3 90 17 340
3 82 317 318
3 340 18 341
3 73 91 326
3 313 80 364
3 245 367 368
3 173 200 367
3 73 74 91
3 18 19 341
3 245 369 413
3 19 20 97
3 336 335 339
3 114 213 425
3 210 208 411
3 59 60 106
3 81 52 310
3 37 38 457
3 258 228 259
3 258 259 288
3 250 374 410
3 82 318 321
3 193 192 365
3 197 147 373
3 255 256 273
3 94 58 334
3 255 197 256
3 273 274 307
3 196 234 235
3 273 256 274
3 170 173 367
3 235 260 261
3 261 260 289
3 358 357 359
3 109 110 111
3 367 200 368
3 160 162 413
3 78 79 107
3 39 40 344
3 208 230 411
3 174 381 401
3 192 214 365
3 235 234 260
3 177 196 391
3 95 77 354
3 229 142 371
3 57 94 363
3 381 247 401
3 142 137 371
3 82 71 317
3 214 270 272
3 436 283 439
3 209 224 237
3 381 174 421
3 130 128 372
3 262 261 263
3 95 354 370
3 58 59 334
3 57 58 94
3 109 111 112
3 55 56 330
3 272 296 301
3 109 108 110
3 139 137 142
3 134 130 372
3 251 160 413
3 214 272 365
3 137 134 371
3 56 57 363
3 209 237 409
3 331 330 332
3 235 261 262
3 143 144 145
3 254 197 255
3 77 78 354
3 72 73 326
3 76 77 95
3 143 142 144
3 230 207 244
3 190 193 378
3 139 142 143
3 168 170 367
3 272 270 296
3 166 168 245
3 52 53 310
3 17 18 340
3 230 244 329
3 274 256 316
3 339 92 455
3 196 225 234
3 276 252 303
3 184 185 204
3 230 329 386
3 170 172 173
3 233 211 374
3 184 204 226
3 371 134 372
3 230 386 411
3 285 233 286
3 286 374 427
3 355 357 358
3 372 128 392
3 251 369 419
3 184 226 383
3 264 263 265
3 286 233 374
3 71 72 317
3 143 145 186
3 211 157 410
3 379 177 391
3 170 171 172
3 173 199 200
3 266 216 280
3 186 145 383
3 262 312 391
3 245 168 367
3 318 319 320
3 138 137 139
3 177 195 196
3 178 202 221
3 145 146 184
3 262 263 264
3 144 142 229
3 226 252 276
3 173 172 183
3 226 277 383
3 376 189 377
3 235 262 391
3 173 183 199
3 145 144 146
3 183 172 388
3 66 67 86
3 135 134 137
3 163 161 164
3 148 189 376
3 144 229 380
3 199 183 206
3 226 204 252
3 248 183 388
3 184 146 185
3 161 159 393
3 151 175 394
3 199 206 257
3 371 372 422
3 266 280 281
3 168 169 170
3 148 188 189
3 162 166 413
3 232 211 233
3 145 184 383
3 249 290 302
3 187 147 197
3 189 190 378
3 277 276 306
3 178 221 388
3 149 394 402
3 284 233 285
3 190 192 193
3 269 283 298
3 143 186 375
3 141 148 376
3 394 278 402
3 206 248 249
3 198 118 247
3 182 157 211
3 249 248 290
3 138 141 397
3 68 69 100
3 271 294 299
3 268 218 269
3 159 231 393
3 312 379 391
3 264 265 322
3 113 174 401
3 239 203 240
3 164 161 393
3 186 383 412
3 158 251 407
3 11 101 384
3 172 171 178
3 189 188 190
3 11 12 101
3 117 115 118
3 214 222 270
3 10 11 384
3 125 124 392
3 424 180 430
3 151 153 175
3 206 183 248
3 163 164 194
3 9 10 87
3 128 125 392
3 87 10 384
3 127 125 128
3 123 121 124
3 247 118 401
3 166 167 168
3 226 276 277
3 133 130 134
3 47 48 84
3 292 293 295
3 217 218 268
3 244 207 403
3 246 164 393
3 172 178 388
3 113 111 174
3 292 240 293
3 115 113 401
3 269 282 283
3 170 169 171
3 208 207 230
3 196 235 391
3 112 111 113
3 139 143 375
3 182 211 232
3 290 248 405
3 232 233 284
3 120 122 149
3 119 118 198
3 149 150 151
3 239 240 292
3 194 164 212
3 269 218 282
3 127 128 129
3 146 144 380
3 104 335 336
3 377 189 378
3 123 124 125
3 212 164 246
3 228 210 411
3 324 325 366
3 248 388 405
3 187 197 254
3 8 9 385
3 48 49 389
3 212 246 400
3 9 87 385
3 149 151 394
3 307 274 404
3 135 138 397
3 218 212 400
3 280 216 414
3 84 48 389
3 141 376 397
3 149 122 150
3 155 176 177
3 181 182 203
3 117 118 119
3 181 157 182
3 256 197 373
3 262 264 312
3 132 136 158
3 217 212 218
3 124 121 399
3 198 247 323
3 158 160 251
3 126 125 127
3 286 427 433
3 28 29 85
3 151 150 152
3 192 201 214
3 194 212 217
3 127 129 131
3 159 136 231
3 123 125 126
3 120 119 121
3 49 50 102
3 122 121 123
3 114 116 213
3 120 149 402
3 213 116 278
3 156 154 157
3 259 228 411
3 29 30 395
3 117 119 120
3 240 203 396
3 148 187 188
3 30 31 103
3 120 121 122
3 324 323 325
3 158 136 159
3 140 139 375
3 118 115 401
3 152 150 250
3 160 159 161
3 162 161 163
3 198 323 324
3 132 133 136
3 141 147 148
3 114 113 115
3 392 124 416
3 383 277 412
3 46 47 387
3 129 128 130
3 219 203 239
3 156 157 181
3 133 134 135
3 168 167 169
3 278 116 402
3 119 198 399
3 47 84 387
3 407 251 419
3 236 216 266
3 203 182 396
3 116 117 402
3 49 102 389
3 255 273 275
3 162 165 166
3 116 115 117
3 282 218 400
3 182 232 396
3 112 113 114
3 124 399 416
3 117 120 402
3 386 381 421
3 123 126 398
3 194 217 253
3 318 317 319
3 121 119 399
3 129 130 132
3 150 122 398
3 166 165 167
3 135 137 138
3 122 123 398
3 234 225 242
3 198 324 399
3 178 179 202
3 388 221 405
3 196 195 225
3 138 139 140
3 209 210 224
3 231 417 423
3 185 146 403
3 205 208 209
3 158 159 160
3 166 245 413
3 190 191 192
3 85 29 395
3 153 152 154
3 252 204 409
3 322 265 442
3 250 150 398
3 224 227 241
3 202 215 223
3 246 428 435
3 316 256 373
3 151 152 153
3 204 185 205
3 207 185 403
3 177 176 195
3 30 103 395
3 254 255 382
3 132 130 133
3 239 292 390
3 181 203 219
3 141 140 147
3 114 115 116
3 131 407 419
3 399 324 416
3 376 377 423
3 386 259 411
3 138 140 141
3 148 147 187
3 231 136 417
3 160 161 162
3 324 366 416
3 146 380 403
3 132 158 407
3 167 165 180
3 157 154 410
3 155 154 156
3 131 129 407
3 280 424 430
3 236 266 297
3 178 171 179
3 129 132 407
3 190 188 191
3 219 267 279
3 243 228 258
3 6 7 98
3 199 257 429
3 163 194 406
3 337 336 338
3 270 222 271
3 215 179 216
3 205 185 207
3 162 163 165
3 153 154 155
3 154 152 410
3 219 239 267
3 329 381 386
3 152 250 410
3 214 201 222
3 236 297 300
3 365 272 436
3 188 187 408
3 171 169 414
3 369 368 443
3 215 216 236
3 63 64 99
3 201 191 220
3 180 165 406
3 255 275 382
3 219 279 415
3 156 181 415
3 202 179 215
3 136 133 417
3 417 397 423
3 135 397 417
3 155 156 176
3 279 267 304
3 246 393 428
3 194 253 406
3 205 209 409
3 392 416 422
3 205 207 208
3 165 163 406
3 204 205 409
3 192 191 201
3 225 195 238
3 191 188 408
3 133 135 417
3 209 208 210
3 187 254 408
3 280 414 424
3 181 219 415
3 443 368 446
3 267 239 390
3 227 210 228
3 179 171 414
3 220 191 408
3 374 250 427
3 416 366 422
3 25 26 92
3 174 111 434
3 216 179 414
3 167 180 424
3 127 131 433
3 224 210 227
3 223 215 418
3 227 228 243
3 271 291 294
3 372 392 422
3 368 200 446
3 288 421 434
3 176 156 415
3 44 45 93
3 428 377 435
3 169 167 424
3 236 300 418
3 243 287 308
3 271 222 291
3 304 267 305
3 397 376 423
3 441 314 442
3 414 169 424
3 200 199 429
3 250 398 427
3 243 258 287
3 281 280 430
3 215 236 418
3 393 231 428
3 398 126 427
3 433 131 440
3 259 386 421
3 104 336 337
3 429 257 444
3 421 174 434
3 201 220 420
3 423 377 428
3 238 195 431
3 415 279 431
3 427 126 433
3 176 415 431
3 241 227 426
3 408 254 432
3 85 445 447
3 126 127 433
3 222 201 420
3 249 302 450
3 195 176 431
3 305 267 390
3 193 365 439
3 243 308 426
3 293 448 449
3 231 423 428
3 238 431 437
3 272 301 436
3 291 222 420
3 254 382 432
3 285 286 440
3 400 246 435
3 111 110 434
3 431 279 437
3 377 378 435
3 378 193 438
3 213 322 442
3 220 408 432
3 400 435 438
3 227 243 426
3 286 433 440
3 435 378 438
3 282 400 438
3 279 304 437
3 438 193 439
3 444 257 448
3 282 438 439
3 283 282 439
3 131 419 440
3 263 261 447
3 232 284 444
3 103 314 441
3 284 429 444
3 206 249 449
3 293 240 448
3 454 88 456
3 425 213 442
3 28 85 451
3 395 103 441
3 285 443 446
3 314 425 442
3 448 257 449
3 285 440 443
3 395 441 445
3 265 263 445
3 396 232 444
3 419 369 443
3 284 285 446
3 85 395 445
3 449 249 450
3 441 265 445
3 92 26 453
3 440 419 443
3 339 455 458
3 396 444 448
3 36 37 456
3 261 289 447
3 240 396 448
3 287 258 454
3 257 206 449
3 458 242 459
3 295 293 450
3 110 309 452
3 85 447 451
3 27 28 451
3 234 242 458
3 308 287 457
3 27 451 453
3 293 449 450
3 451 289 453
3 26 27 453
3 288 452 454
3 338 336 459
3 92 453 455
3 447 289 451
3 258 288 454
3 434 110 452
3 88 36 456
3 289 260 455
3 288 434 452
3 456 37 457
3 455 260 458
3 287 456 457
3 453 289 455
3 339 458 459
3 260 234 458
3 336 339 459
3 352 387 482
3 479 304 511
3 306 484 512
3 343 342 477
3 14 15 460
3 328 321 463
3 91 74 462
3 76 95 461
3 318 320 464
3 297 266 465
3 86 67 467
3 68 100 467
3 406 253 466
3 436 301 468
3 430 180 466
3 66 86 469
3 296 270 471
3 99 64 470
3 271 299 471
3 298 283 468
3 63 99 472
3 507 418 508
3 506 223 507
3 223 418 507
3 418 300 508
3 281 430 505
3 502 281 505
3 346 344 474
3 40 41 474
3 61 62 475
3 83 14 460
3 75 76 461
3 75 461 462
3 100 328 463
3 74 75 462
3 321 318 464
3 266 281 465
3 180 406 466
3 67 68 467
3 283 436 468
3 65 66 469
3 65 469 470
3 64 65 470
3 270 271 471
3 62 63 472
3 363 94 476
3 100 463 504
3 321 464 503
3 465 281 502
3 90 479 511
3 242 225 477
3 361 362 496
3 420 220 478
3 361 496 497
3 94 334 509
3 359 361 506
3 460 15 485
3 350 93 493
3 360 98 494
3 340 343 479
3 437 304 479
3 290 405 473
3 89 331 480
3 81 310 486
3 101 327 487
3 106 475 483
3 344 40 474
3 332 363 476
3 276 303 484
3 305 460 485
3 16 90 485
3 461 95 508
3 275 273 486
3 450 302 487
3 105 43 488
3 97 20 489
3 44 93 488
3 6 98 490
3 62 472 475
3 404 306 491
3 390 292 492
3 46 387 493
3 93 45 493
3 8 385 494
3 98 7 494
3 389 102 484
3 303 353 482
3 459 242 495
3 300 461 508
3 202 223 497
3 60 0 499
3 0 61 499
3 79 1 501
3 1 4 501
3 356 107 501
3 2 23 498
3 22 2 498
3 41 3 500
3 3 42 500
3 104 337 498
3 326 91 502
3 268 269 504
3 253 217 503
3 334 106 483
3 302 290 481
3 382 275 480
3 225 238 477
3 91 465 502
3 463 268 504
3 464 253 503
3 220 432 478
3 387 84 482
3 473 405 496
3 362 473 496
3 90 340 479
3 311 89 480
3 87 384 481
3 290 473 481
3 353 352 482
3 291 420 510
3 21 337 489
3 356 5 490
3 299 294 483
3 306 276 484
3 15 16 485
3 294 291 509
3 273 307 486
3 295 450 487
3 476 291 510
3 43 44 488
3 5 6 490
3 337 338 489
3 20 21 489
3 357 356 490
3 307 404 491
3 292 295 492
3 45 46 493
3 7 8 494
3 420 478 510
3 338 459 495
3 291 476 509
3 474 41 500
3 61 475 499
3 491 306 512
3 405 221 496
3 496 221 497
3 221 202 497
3 106 60 499
3 107 79 501
3 23 104 498
3 42 105 500
3 319 326 502
3 217 268 503
3 269 298 504
3 485 90 511
3 319 502 505
3 320 319 505
3 358 359 506
3 370 358 507
3 370 507 508
3 358 506 507
3 95 370 508
3 476 94 509
3 304 305 511
3 102 315 512
3 105 474 500
3 475 106 499
3 478 332 510
3 332 476 510
3 305 485 511
3 315 491 512
POINT_DATA 513
SCALARS value double 1
LOOKUP_TABLE default
0.308872
0.00020723
0.308872
0.00020723
0.000734567
0.00262959
0.00909079
0.0291624
0.0846543
0.219449
0.504777
1.02719
1.84673
2.93147
4.10753
5.07963
5.54391
5.33978
4.53886
3.40475
2.25392
1.31676
0.678867
0.678867
1.31676
2.25392
3.40475
4.53886
5.33978
5.54391
5.07963
4.10753
2.93147
1.84673
1.02719
0.504777
0.219449
0.0846543
0.0291624
0.00909079
0.00262959
0.000734567
0.000734567
0.00262959
0.00909079
0.0291624
0.0846543
0.219449
0.504777
1.02719
1.84673
2.93147
4.10753
5.07963
5.54391
5.33978
4.53886
3.40475
2.25392
1.31676
0.678867
0.678867
1.31676
2.25392
3.40475
4.53886
5.33978
5.54391
5.07963
4.10753
2.93147
1.84673
1.02719
0.504777
0.219449
0.0846543
0.0291624
0.00909079
0.00262959
0.000734567
7.51807
9.54629
7.29839
9.50083
2.13536
13.1584
13.3304
2.07692
2.23233
13.394
11.94
1.9889
8.30392
0.486654
6.89216
0.311011
0.415763
8.63727
0.393081
9.11935
11.3635
4.94493
4.00972
11.7221
4.04617
0.146877
3.50598
0.0907242
5.36545
11.1121
7.87071
13.7953
18.6074
21.5345
27.8401
30.8401
38.2214
40.8813
32.5416
41.9509
50.2978
50.3193
57.4919
56.1914
49.8407
54.7874
58.4487
56.2109
54.6552
55.5811
56.3811
53.8479
56.7795
59.4701
55.8846
60.015
58.9561
53.5941
57.7375
49.2063
52.5016
59.7729
44.5583
39.0058
34.5087
28.7427
24.9011
53.1206
58.5321
57.1431
62.4338
61.0457
63.9027
60.9917
61.2764
56.7832
54.8356
57.095
53.3432
54.4172
46.7254
46.7319
38.1294
37.2635
45.6773
28.954
30.0039
21.7005
23.0182
15.7875
17.3438
11.2465
12.8892
19.7006
15.6743
56.2757
49.1245
49.0594
7.97389
6.84116
20.5376
49.1091
49.353
15.1106
19.6529
16.7467
32.5778
50.4474
53.7614
59.8476
53.0151
46.1785
43.6715
48.3841
35.3094
40.8345
39.4267
43.944
33.4841
22.8194
28.2734
36.8412
4.5694
40.7536
12.4611
10.5135
17.6614
14.4751
9.01465
6.17872
5.24269
55.9393
42.9632
33.6794
33.1425
3.85343
6.01915
32.69
38.0621
39.3902
37.7138
5.63619
26.5815
2.33721
3.36805
31.6646
14.7266
2.85089
4.57147
40.0043
12.8933
60.5806
46.827
52.2649
29.3652
35.0384
3.31222
4.10944
30.7174
31.1346
31.4771
1.7392
22.7059
2.42468
19.5216
31.479
52.6191
24.7049
11.22
12.6756
63.3327
46.8371
8.6161
25.114
40.1851
33.245
35.9615
26.308
3.98836
7.15056
24.8655
28.5577
38.7815
30.4202
39.8286
30.0488
5.15061
29.3234
26.9309
30.5997
23.0499
17.8829
27.2686
27.2085
27.4676
22.7265
9.88975
17.2672
44.385
35.7502
9.33442
8.03326
40.7694
31.9226
42.5761
47.5366
55.5058
1.97417
6.33428
18.9404
7.82897
20.1943
23.251
22.3509
12.7116
15.3803
17.21
2.43761
20.6827
10.4239
1.61589
19.5883
8.16976
5.54625
27.0251
19.4477
12.7026
18.8804
1.14506
3.57087
11.382
12.8916
48.4807
9.76878
17.9575
6.42293
35.3536
5.2594
10.6735
7.98523
14.9072
14.3374
37.9806
25.8623
34.539
27.6336
3.2096
7.74925
9.47794
18.0823
12.9235
22.8077
18.6029
48.0905
5.54653
6.00679
8.22299
4.37584
9.32916
12.0968
13.0742
10.7368
15.9716
20.8751
0.227099
0.648097
0.349591
0.83132
0.456439
0.99598
1.23618
2.08559
2.50754
5.19181
0.16457
0.261548
0.111524
0.354931
0.634753
0.797278
1.03534
1.7821
2.24912
9.89259
14.647
38.1339
36.5679
25.1142
34.0732
40.2812
0.463799
48.9547
52.2548
44.8634
59.6764
42.8902
63.2169
62.0655
56.7463
54.523
30.5144
16.971
29.769
22.8603
3.43534
1.45548
11.793
1.27281
9.4575
3.35668
20.5741
45.3934
50.2064
54.5692
54.0768
12.9528
39.6048
62.9845
61.0844
42.302
48.0144
23.4619
48.5344
21.7392
19.5273
6.66468
27.3446
52.7962
44.8168
7.40127
62.0594
7.95507
25.8658
38.7964
10.1403
45.722
43.0847
62.5276
1.94547
48.1815
29.5287
10.8191
45.2256
63.8378
14.8212
23.4579
1.43947
60.36
60.1088
32.2848
13.6208
39.3338
33.8621
56.6634
9.60922
56.5913
30.6567
28.7791
49.9332
40.9067
51.2313
20.4264
27.5425
43.2301
36.422
21.5226
37.9493
20.9895
29.4864
20.2291
14.4053
12.2825
5.23272
10.5348
3.28945
15.7975
1.32296
0.751831
20.0672
14.7375
12.8596
0.747047
1.27903
17.3748
18.1493
3.84114
18.6438
12.7593
21.457
12.5641
10.9321
14.3465
6.29184
3.70918
0.122422
4.52108
14.5385
23.7843
28.3241
20.672
20.9071
4.86209
3.10459
7.41919
6.78504
11.3671
17.6807
9.66291
0.205369
5.23459
0.157842
13.1667
15.3758
0.596421
0.558684
15.5446
3.75993
2.89267
1.90544
1.77828
0.0420078
0.0319048
5.05633
23.5171
19.6457
10.8962
1.4541
1.17032
0.838059
11.8154
22.603
18.103
8.50982
